
Running Job 1 of 1 tddft.in
qchem tddft.in_1419919.0 /pscratch/sd/m/morgunov/qchem1419919/ 1
/global/common/software/nersc9/qchem/6.2.1-cpu/exe/qcprog.exe_s tddft.in_1419919.0 /pscratch/sd/m/morgunov/qchem1419919/
                  Welcome to Q-Chem
     A Quantum Leap Into The Future Of Chemistry


 Q-Chem 6.2, Q-Chem, Inc., Pleasanton, CA (2024)

 License issued to: National Energy Research Scientific Computing Center (site)

 E. Epifanovsky,  A. T. B. Gilbert,  Xintian Feng,  Joonho Lee,  Yuezhi Mao,  
 N. Mardirossian,  P. Pokhilko,  A. White,  M. Wormit,  M. P. Coons,  
 A. L. Dempwolff,  Zhengting Gan,  D. Hait,  P. R. Horn,  L. D. Jacobson,  
 I. Kaliman,  J. Kussmann,  A. W. Lange,  Ka Un Lao,  D. S. Levine,  Jie Liu,  
 S. C. McKenzie,  A. F. Morrison,  K. D. Nanda,  F. Plasser,  D. R. Rehn,  
 M. L. Vidal,  Zhi-Qiang You,  Ying Zhu,  Huseyin Aksu,  B. Alam,  
 B. Albrecht,  A. Aldossary,  E. Alguire,  J. H. Andersen,  
 J. E. Arias-Martinez,  V. Athavale,  D. Barton,  K. Begam,  A. Behn,  
 N. Bellonzi,  Y. A. Bernard,  E. J. Berquist,  H. Burton,  A. Carreras,  
 K. Carter-Fenk,  Mathew Chow,  Romit Chakraborty,  Chandrima Chakravarty,  
 Junhan Chen,  A. D. Chien,  K. D. Closser,  V. Cofer-Shabica,  L. Cunha,  
 S. Dasgupta,  Jia Deng,  Joseph Dickinson,  M. de Wergifosse,  
 M. Diedenhofen,  Hainam Do,  Wenjie Dou,  S. Ehlert,  Po-Tung Fang,  
 S. Fatehi,  Qingguo Feng,  Jonathan Fetherolf,  T. Friedhoff,  
 Thomas Froitzheim,  Sarai Folkestad,  B. Ganoe,  J. Gayvert,  Qinghui Ge,  
 G. Gidofalvi,  M. Gimferrer,  M. Goldey,  Montgomery Gray,  J. Gomes,  
 C. Gonzalez-Espinoza,  S. Gulania,  A. Gunina,  J. A. Gyamfi,  
 M. W. D. Hanson-Heine,  P. H. P. Harbach,  A. W. Hauser,  M. F. Herbst,  
 M. Hernandez Vera,  M. Hodecker,  Z. C. Holden,  S. Houck,  Xunkun Huang,  
 Kerwin Hui,  B. C. Huynh,  K. Ikeda,  M. Ivanov,  Nayanthara K. Jayadev,  
 Hyunjun Ji,  Zuxin Jin,  Hanjie Jiang,  Subrata Jana,  B. Kaduk,  
 S. Kaehler,  R. Kang,  K. Khistyaev,  Jaehoon Kim,  Yongbin Kim,  
 P. Klunzinger,  Z. Koczor-Benda,  Joong Hoon Koh,  D. Kosenkov,  
 Saikiran Kotaru,  L. Koulias,  T. Kowalczyk,  C. M. Krauter,  K. Kue,  
 A. Kunitsa,  T. Kus,  A. Landau,  K. V. Lawler,  D. Lefrancois,  S. Lehtola,  
 Rain Li,  Shaozhi Li,  Tao E. Li,  Yi-Pei Li,  Jiashu Liang,  M. Liebenthal,  
 Hung-Hsuan Lin,  You-Sheng Lin,  Fenglai Liu,  Kuan-Yu Liu,  Xiao Liu,  
 M. Loipersberger,  A. Luenser,  C. Malbon,  Aniket Mandal,  Manisha,  
 A. Manjanath,  P. Manohar,  E. Mansoor,  S. F. Manzer,  Shan-Ping Mao,  
 A. V. Marenich,  T. Markovich,  S. Mason,  F. Matz,  S. A. Maurer,  
 Samuel May,  Alexandra McIsaac,  P. F. McLaughlin,  M. F. S. J. Menger,  
 J.-M. Mewes,  S. A. Mewes,  P. Morgante,  Mohammad Mostafanejad,  
 Madhubani Mukherjee,  J. W. Mullinax,  Quyen Nguyen,  Avik Kumar Ojha,  
 K. J. Oosterbaan,  Eno Paenurk,  Xiaoliang Pan,  G. Paran,  V. Parravicini,  
 Alexander C. Paul,  Suranjan K. Paul,  F. Pavosevic,  Zheng Pei,  S. Prager,  
 E. I. Proynov,  E. Ramos,  B. Rana,  A. E. Rask,  A. Rettig,  R. M. Richard,  
 F. Rob,  E. Rossomme,  T. Scheele,  M. Scheurer,  M. Schneider,  
 P. E. Schneider,  Tim K. Schramm,  N. Sergueev,  S. M. Sharada,  
 Hengyuan Shen,  W. Skomorowski,  D. W. Small,  C. J. Stein,  
 Alistair J. Sterling,  Yingli Su,  Yu-Chuan Su,  E. J. Sundstrom,  
 J. Talbot,  Zhen Tao,  J. Thirman,  Hung-Yi Tsai,  T. Tsuchimochi,  
 N. M. Tubman,  C. Utku,  S. P. Veccham,  O. Vydrov,  Rahel Weiss,  
 J. Wenzel,  Jonathan Wong,  J. Witte,  H. Wu,  Yanze Wu,  A. Yamada,  
 Chou-Hsun Yang,  Kun Yao,  S. Yeganeh,  S. R. Yost,  Qi Yu,  A. Zech,  
 F. Zeller,  Chongxiao Zhao,  Igor Ying Zhang,  Xing Zhang,  Yu Zhang,  
 D. Zuev,  A. Aspuru-Guzik,  A. T. Bell,  N. A. Besley,  K. B. Bravaya,  
 B. R. Brooks,  D. Casanova,  Jeng-Da Chai,  Hsing-Ta Chen,  S. Coriani,  
 C. J. Cramer,  A. E. DePrince, III,  R. A. DiStasio Jr.,  A. Dreuw,  
 B. D. Dunietz,  T. R. Furlani,  W. A. Goddard III,  S. Grimme,  
 S. Hammes-Schiffer,  T. Head-Gordon,  W. J. Hehre,  Chao-Ping Hsu,  
 T.-C. Jagau,  Yousung Jung,  A. Klamt,  Jing Kong,  D. S. Lambrecht,  
 Xiangyuan Li,  WanZhen Liang,  N. J. Mayhall,  C. W. McCurdy,  J. B. Neaton,  
 T. Neudecker,  C. Ochsenfeld,  J. A. Parkhill,  R. Peverati,  
 V. A. Rassolov,  Haisheng Ren,  Yihan Shao,  L. V. Slipchenko,  
 R. P. Steele,  J. E. Subotnik,  A. J. W. Thom,  A. Tkatchenko,  
 D. G. Truhlar,  T. Van Voorhis,  Fan Wang,  T. A. Wesolowski,  K. B. Whaley,  
 H. L. Woodcock III,  P. M. Zimmerman,  S. Faraji,  P. M. W. Gill,  
 M. Head-Gordon,  J. M. Herbert,  A. I. Krylov

 Contributors to earlier versions of Q-Chem not listed above: 
 R. D. Adamson,  B. Austin,  R. Baer,  J. Baker,  G. J. O. Beran,  
 K. Brandhorst,  S. T. Brown,  E. F. C. Byrd,  Arup K. Chakraborty,  
 G. K. L. Chan,  Chun-Min Chang,  Yunqing Chen,  C.-L. Cheng,  
 Siu Hung Chien,  D. M. Chipman,  D. L. Crittenden,  H. Dachsel,  
 R. J. Doerksen,  A. D. Dutoi,  R. G. Edgar,  J. Fosso-Tande,  
 L. Fusti-Molnar,  D. Ghosh,  A. Ghysels,  A. Golubeva-Zadorozhnaya,  
 J. Gonthier,  M. S. Gordon,  S. R. Gwaltney,  G. Hawkins,  J. E. Herr,  
 A. Heyden,  S. Hirata,  E. G. Hohenstein,  G. Kedziora,  F. J. Keil,  
 C. Kelley,  Jihan Kim,  R. A. King,  R. Z. Khaliullin,  P. P. Korambath,  
 W. Kurlancheek,  A. Laurent,  A. M. Lee,  M. S. Lee,  S. V. Levchenko,  
 Ching Yeh Lin,  D. Liotard,  E. Livshits,  R. C. Lochan,  I. Lotan,  
 L. A. Martinez-Martinez,  P. E. Maslen,  N. Nair,  D. P. O'Neill,  
 D. Neuhauser,  E. Neuscamman,  C. M. Oana,  R. Olivares-Amaya,  R. Olson,  
 T. M. Perrine,  B. Peters,  P. A. Pieniazek,  A. Prociuk,  Y. M. Rhee,  
 J. Ritchie,  M. A. Rohrdanz,  E. Rosta,  N. J. Russ,  H. F. Schaefer III,  
 M. W. Schmidt,  N. E. Schultz,  S. Sharma,  N. Shenvi,  C. D. Sherrill,  
 A. C. Simmonett,  A. Sodt,  T. Stein,  D. Stuck,  K. S. Thanthiriwatte,  
 V. Vanovschi,  L. Vogt,  Tao Wang,  A. Warshel,  M. A. Watson,  
 C. F. Williams,  Q. Wu,  X. Xu,  Jun Yang,  W. Zhang,  Yan Zhao

   Please cite Q-Chem as follows:
  "Software for the frontiers of quantum chemistry:
   An overview of developments in the Q-Chem 5 package"
   J. Chem. Phys. 155, 084801 (2021)
   https://doi.org/10.1063/5.0055522 (open access)

 Q-Chem 6.2.1 for Intel X86 EM64T Linux

 Parts of Q-Chem use Armadillo 9.900.5 (Nocturnal Misbehaviour).
 http://arma.sourceforge.net/

 Q-Chem begins on Sun May  4 14:52:49 2025  

 Host: login30
0

     Scratch files written to /pscratch/sd/m/morgunov/qchem1419919//
 Sep124 |scratch|qcdevops|jenkins|workspace|build_RNUM -1
 Processing $rem in /global/common/software/nersc9/qchem/6.2.1-cpu/config/preferences:
 Processing $rem in /global/homes/m/morgunov/.qchemrc:
 Symmetry turned off for PCM/SM12/SMD calculation

 Checking the input file for inconsistencies... 	...done.

--------------------------------------------------------------
User input:
--------------------------------------------------------------
$molecule
0 1
H        1.36499000      1.69385000     -0.19748000
O        2.32877000      1.56294000     -0.04168000
H        2.70244000      1.31157000     -0.91665000
$end

$rem
JOBTYPE           sp
METHOD            wb97x-d3
BASIS             def2-tzvppd
UNRESTRICTED      False
SYMMETRY          False
SYM_IGNORE        True
SOLVENT_METHOD    smd
$end

$smx
solvent    water
$end
--------------------------------------------------------------
 Adding empirical dispersion correction 
 ----------------------------------------------------------------
 Doing -D3(0) with
 s6  =   1.00000
 s8  =   1.00000
 rs6 =   1.28100
 rs8 =   1.09400
 ----------------------------------------------------------------
 -D3 energy without 3body term =     -0.0000016383 hartrees
 ----------------------------------------------------------------
             Standard Nuclear Orientation (Angstroms)
    I     Atom           X                Y                Z
 ----------------------------------------------------------------
    1      H       1.3649900000     1.6938500000    -0.1974800000
    2      O       2.3287700000     1.5629400000    -0.0416800000
    3      H       2.7024400000     1.3115700000    -0.9166500000
 ----------------------------------------------------------------
 Nuclear Repulsion Energy =           8.93764808 hartrees
 There are        5 alpha and        5 beta electrons
 Requested basis set is def2-TZVPPD
 There are 28 shells and 74 basis functions

 Total QAlloc Memory Limit   7470 MB
 Mega-Array Size       188 MB
 MEM_STATIC part       192 MB

 
 Using the SMD solvation model
 Solvent: water                                                           
 
 Using SMD atomic radii in place of PCM radii
 Using C-PCM dielectric factor f(eps) = (eps-1)/eps = 0.987243
 Static dielectric constant eps = 78.39
 Discretize the solute cavity surface with Lebedev spheres
	Using 110 Lebedev grid points for each H atom
	Using 194 Lebedev grid points for other atoms
	Atomic van der Waals radii will be scaled by 1.20
 Using smooth SwiG surface discretization
 Remove points where switching function is < 1.0e-08
 Keep 290 surface tesserae and discard 124 interior tesserae
 Molecular Surface Area = 36.661 Angst**2


                       Distance Matrix (Angstroms)
             H (  1)   O (  2)
   O (  2)  0.985029
   H (  3)  1.565923  0.984067
 
 A cutoff of  1.0D-09 yielded    406 shell pairs
 There are      2876 function pairs (      3553 Cartesian)
 Smallest overlap matrix eigenvalue = 7.37E-04

 Scale SEOQF with 1.000000e-01/1.000000e-01/1.000000e-01

 Standard Electronic Orientation quadrupole field applied
 Nucleus-field energy     =     0.0000000035 hartrees
 Guess from superposition of atomic densities
 Warning:  Energy on first SCF cycle will be non-variational
 SAD guess density has 10.000000 electrons

 -----------------------------------------------------------------------
  General SCF calculation program by
  Eric Jon Sundstrom, Paul Horn, Yuezhi Mao, Dmitri Zuev, Alec White,
  David Stuck, Shaama M.S., Shane Yost, Joonho Lee, David Small,
  Daniel Levine, Susi Lehtola, Hugh Burton, Evgeny Epifanovsky,
  Bang C. Huynh
 -----------------------------------------------------------------------
 Exchange:     0.1957 Hartree-Fock + 1.0000 wB97X-D3 + LR-HF
 Correlation:  1.0000 wB97X-D3
 Using SG-2 standard quadrature grid
 Dispersion:   Grimme D3
 
 Using the SMD solvation model
 Solvent: water                                                           
 
 C-PCM solvent model [f = (eps-1)/eps], solve by matrix inversion
 A restricted SCF calculation will be
 performed using DIIS
 SCF converges when DIIS error is below 1.0e-05
 ---------------------------------------
  Cycle       Energy         DIIS error
 ---------------------------------------
    1     -76.3019247487      4.14e-02  
    2     -76.4061599049      9.95e-03  
    3     -76.4133398975      1.01e-02  
    4     -76.4559133599      4.65e-04  
    5     -76.4560515081      1.34e-04  
    6     -76.4560750891      2.29e-05  
    7     -76.4560764224      5.94e-06  Convergence criterion met
 ---------------------------------------
 SCF time:   CPU 2.18s  wall 2.00s 
 Summary of SMD free energies:
 	G_PCM  =   -10.8438 kcal/mol (polarization energy)
 	G_CDS  =     1.4731 kcal/mol (non-electrostatic energy)
 	G_ENP  =   -76.45607642 a.u. = E_SCF (including G_PCM)
 	G(tot) =   -76.45372896 a.u. = G_ENP + G_CDS
 SCF   energy =   -76.45607642
 Total energy =   -76.45372896
 
 --------------------------------------------------------------
 
                    Orbital Energies (a.u.)
 --------------------------------------------------------------
 
 Alpha MOs
 -- Occupied --
-19.2349  -1.1156  -0.6204  -0.4951  -0.4206
 -- Virtual --
  0.0815   0.1133   0.1261   0.1304   0.2241   0.2513   0.2800   0.2888
  0.3096   0.3354   0.3574   0.3985   0.4777   0.4852   0.5105   0.5688
  0.5853   0.7218   0.7595   0.7710   0.7745   0.9427   1.0372   1.0581
  1.1244   1.1859   1.2588   1.3956   1.4448   1.9168   1.9846   2.0477
  2.1638   2.2850   2.5983   2.7878   2.8530   3.0932   3.2193   3.2987
  3.3966   3.4564   3.4575   3.4606   3.6946   3.8867   3.9327   4.0350
  4.1013   4.1850   4.2327   4.2930   4.7212   4.7428   4.9903   5.1847
  5.6561   6.1729   6.4642   6.5333   6.6400   6.6456   6.7379   6.8512
  7.0179   7.4659   7.5518   7.8011  43.8491
 --------------------------------------------------------------
 
          Ground-State Mulliken Net Atomic Charges

     Atom                 Charge (a.u.)
  ----------------------------------------
      1 H                     0.258251
      2 O                    -0.515681
      3 H                     0.257430
  ----------------------------------------
  Sum of atomic charges =     0.000000

 -----------------------------------------------------------------
                    Cartesian Multipole Moments
 -----------------------------------------------------------------
    Charge (ESU x 10^10)
                -0.0000
    Dipole Moment (Debye)
         X      -1.2166      Y      -0.2484      Z      -2.1256
       Tot       2.4617
    Quadrupole Moments (Debye-Ang)
        XX     -10.2609     XY      -3.1695     YY      -8.4016
        XZ      -5.5077     YZ      -2.7052     ZZ      -5.3504
    Octopole Moments (Debye-Ang^2)
       XXX     -53.2148    XXY     -20.3433    XYY     -24.4478
       YYY     -37.4666    XXZ     -14.1705    XYZ      -6.9000
       YYZ      -2.6870    XZZ     -11.5574    YZZ      -8.8172
       ZZZ       0.2702
    Hexadecapole Moments (Debye-Ang^3)
      XXXX    -229.0175   XXXY     -96.1184   XXYY     -81.3512
      XYYY     -95.7993   YYYY    -122.7738   XXXZ     -35.9972
      XXYZ     -17.5148   XYYZ      -6.8408   YYYZ      -0.8927
      XXZZ     -27.1713   XYZZ     -19.3476   YYZZ     -17.0816
      XZZZ      -0.1908   YZZZ       0.8986   ZZZZ      -6.6403
 -----------------------------------------------------------------
 Total job time:  3.28s(wall), 2.31s(cpu) 
 Sun May  4 14:52:52 2025

        *************************************************************
        *                                                           *
        *  Thank you very much for using Q-Chem.  Have a nice day.  *
        *                                                           *
        *************************************************************


